/*--------------------------------*- C++ -*----------------------------------*\
| =========                 |                                                 |
| \\      /  F ield         | OpenFOAM: The Open Source CFD Toolbox           |
|  \\    /   O peration     | Version:  2.3.0                                 |
|   \\  /    A nd           | Web:      www.OpenFOAM.org                      |
|    \\/     M anipulation  |                                                 |
\*---------------------------------------------------------------------------*/
FoamFile
{
    version     2.0;
    format      ascii;
    class       volScalarField;
    location    "0";
    object      h0;
}
// * * * * * * * * * * * * * * * * * * * * * * * * * * * * * * * * * * * * * //

dimensions      [0 1 0 0 0 0 0];

internalField   nonuniform List<scalar> 
9606
(
242.295
242.455
242.093
242.738
242.276
242.738
241.790
241.549
241.931
242.084
242.209
242.350
241.294
241.135
242.059
242.005
241.053
241.049
241.926
241.888
241.966
242.159
241.944
242.103
242.005
242.278
241.987
242.136
242.283
242.366
242.309
242.380
241.068
241.158
241.298
241.435
241.940
242.059
242.338
242.384
241.826
241.796
241.607
241.721
241.898
242.359
241.820
241.932
241.843
242.256
241.577
241.725
241.711
241.817
241.432
241.567
241.267
242.615
241.995
242.103
241.683
242.829
242.344
242.499
241.790
241.810
241.922
241.994
242.107
242.180
242.264
242.300
242.356
242.750
242.468
242.800
242.391
242.725
242.377
242.884
242.359
242.642
242.405
242.561
242.170
242.231
242.165
242.640
241.977
242.190
241.972
242.309
241.915
241.939
241.909
242.304
241.944
241.961
241.958
242.666
241.962
242.447
241.975
242.001
242.117
242.543
242.057
242.076
242.400
242.465
242.224
242.084
242.367
242.676
242.098
242.301
242.283
242.246
242.184
242.114
241.997
241.940
241.895
241.939
241.984
242.106
242.394
242.231
241.896
242.754
242.694
242.691
242.532
242.440
242.496
242.610
242.525
242.516
242.518
242.518
242.516
242.522
242.523
242.515
242.499
242.466
242.439
242.437
242.513
242.647
242.694
242.537
242.442
242.408
242.383
242.367
242.376
242.385
242.401
242.420
242.449
242.477
242.074
242.576
242.269
242.391
242.076
242.182
242.114
242.459
242.082
242.562
242.237
242.498
242.156
242.291
242.220
242.390
242.151
242.927
242.249
242.540
242.181
243.120
242.313
242.453
242.216
242.236
242.496
242.631
242.317
242.289
242.721
242.855
242.345
242.293
242.167
242.888
242.291
242.310
242.202
243.027
242.507
242.595
242.239
242.995
242.336
242.336
242.278
243.038
242.400
242.559
242.328
243.063
242.416
242.520
242.376
243.232
242.663
242.651
242.414
243.443
242.667
242.655
242.469
242.473
242.852
242.907
242.510
242.510
242.469
243.174
242.723
242.723
242.498
243.241
242.733
242.663
242.511
242.511
242.958
242.968
242.656
242.656
242.460
243.264
242.526
242.526
242.486
242.495
243.044
243.051
242.572
242.610
242.447
243.283
242.683
242.666
242.477
242.454
242.367
242.818
242.652
242.511
242.442
242.449
242.340
243.394
242.832
242.475
242.394
242.377
242.293
243.493
242.965
242.777
242.441
242.355
242.312
243.700
243.232
243.133
242.749
242.649
242.443
242.362
242.301
242.289
242.257
243.458
242.176
243.385
242.063
243.420
241.924
243.533
243.676
243.380
242.500
243.013
243.141
243.496
243.633
242.125
242.175
242.360
242.522
242.857
243.005
243.524
242.081
242.015
242.059
242.187
242.183
242.753
242.916
242.036
242.073
242.278
242.406
243.120
243.284
243.771
242.274
242.377
242.404
242.692
242.323
242.392
242.403
242.483
242.659
242.406
242.406
242.640
242.466
242.851
242.301
242.393
242.371
242.434
242.283
242.381
242.346
242.460
242.491
242.704
242.768
242.407
242.628
242.407
242.845
242.521
242.909
242.636
242.335
242.261
242.681
242.321
242.375
242.423
242.763
242.364
242.575
242.360
242.895
242.477
242.623
242.313
242.396
242.552
242.654
242.257
242.802
242.527
242.293
242.237
242.380
242.327
242.734
242.342
243.167
242.598
242.364
242.247
242.364
242.364
242.581
242.213
242.651
242.581
242.320
242.259
242.827
242.320
242.366
242.287
242.935
242.499
242.420
242.420
242.207
242.207
242.089
242.348
242.188
242.188
242.047
242.563
242.335
242.390
242.263
242.478
242.453
242.478
242.458
242.444
242.436
242.568
242.458
242.441
242.478
242.489
242.440
242.537
242.421
242.613
242.256
242.416
242.181
242.602
242.277
242.365
242.179
242.542
242.168
242.191
241.980
242.440
242.308
242.349
242.233
242.989
242.473
242.609
242.330
242.894
242.409
242.422
242.311
242.307
242.455
242.455
242.094
242.094
241.832
242.827
242.246
242.246
242.156
242.156
242.906
242.905
242.386
242.223
242.167
243.483
243.021
242.910
242.480
242.355
243.455
242.934
242.186
242.185
242.112
243.195
242.791
242.629
242.434
242.413
242.356
242.340
242.291
243.030
242.589
242.575
242.472
242.366
242.273
243.742
243.482
243.226
242.871
242.654
242.555
242.315
242.137
241.978
241.833
241.818
241.934
243.513
243.282
243.228
242.441
242.474
242.728
243.362
242.430
242.471
242.662
243.210
243.169
242.767
242.891
242.501
242.685
242.480
243.016
242.680
242.703
242.659
242.610
242.769
242.912
242.985
243.066
243.232
242.481
242.741
242.769
243.060
243.086
242.544
242.476
242.642
242.498
242.454
242.438
242.468
242.448
242.449
242.433
242.458
242.449
242.423
242.958
242.751
242.424
242.189
242.081
242.134
242.175
243.501
243.420
242.792
242.405
242.473
242.942
243.051
243.089
242.635
242.587
242.744
242.586
242.848
243.347
243.076
243.239
243.249
242.334
242.359
242.635
242.482
242.380
242.379
242.487
242.535
242.661
243.007
242.393
242.463
242.607
242.914
242.310
242.393
242.426
242.560
242.530
243.076
243.190
242.396
242.422
242.480
242.486
242.548
243.493
243.803
242.421
242.394
242.379
242.391
242.413
243.240
242.467
243.239
242.467
243.233
242.331
242.235
242.167
242.093
242.088
242.143
242.151
242.218
242.016
242.013
242.013
242.014
242.016
242.018
242.153
242.463
242.173
242.130
245.138
242.184
244.637
244.129
243.821
243.571
243.240
242.901
242.804
242.537
242.485
242.395
242.356
242.295
243.595
242.574
242.559
242.523
242.507
242.476
242.451
242.430
242.404
242.389
243.613
242.323
243.215
242.902
242.732
242.463
242.436
242.385
243.557
242.941
242.329
241.942
241.918
241.858
244.591
243.316
243.022
242.284
242.082
241.891
244.401
242.622
242.766
242.573
242.736
242.383
242.379
242.427
242.407
242.106
242.095
242.055
242.093
241.971
241.971
241.979
242.000
242.131
242.548
242.174
242.432
242.117
242.183
242.060
242.762
242.416
242.687
242.416
242.661
242.375
242.382
242.339
242.644
242.420
242.673
242.478
242.597
242.430
242.440
242.427
242.599
242.425
242.647
242.397
242.707
242.407
242.449
242.381
242.560
242.347
242.566
242.318
242.690
242.363
242.570
242.319
242.492
242.199
242.269
242.141
242.535
242.123
242.539
242.247
242.610
242.126
242.129
242.102
242.485
242.149
242.430
242.191
242.298
242.105
242.512
242.099
242.481
242.124
242.527
242.199
242.308
242.381
242.755
242.106
242.635
242.132
242.487
242.103
242.157
242.172
242.488
242.142
242.299
242.011
242.084
241.980
242.168
242.273
242.378
242.025
242.100
242.071
242.479
242.074
242.479
242.096
242.837
242.076
242.837
242.079
242.590
242.079
242.590
242.092
242.368
242.222
242.512
242.254
242.618
242.552
242.936
242.898
242.222
242.430
242.408
242.356
242.413
242.340
242.345
242.266
243.533
242.650
242.633
242.322
243.284
242.885
242.925
242.508
243.438
243.418
243.139
242.165
242.559
242.490
242.677
242.142
242.191
242.353
242.664
242.125
242.266
242.236
242.557
242.191
242.285
242.191
242.501
242.140
242.536
242.215
242.409
242.192
242.235
242.336
242.663
242.287
242.624
242.163
242.416
242.143
242.548
242.246
242.665
242.401
242.992
242.245
243.533
242.794
242.686
242.356
242.951
242.580
242.127
241.845
242.320
241.891
241.952
241.899
241.831
241.775
241.937
241.767
241.889
241.687
241.738
241.678
241.936
241.744
242.298
242.056
242.679
242.668
243.131
243.483
243.375
241.247
241.439
241.534
241.803
241.903
242.110
242.292
242.762
241.824
242.047
242.184
242.165
242.592
241.798
242.126
242.071
242.189
242.188
242.050
242.011
242.443
242.309
241.994
241.901
242.209
241.994
242.042
241.689
242.102
241.768
242.155
241.736
242.000
241.737
241.958
241.808
242.269
241.854
242.298
241.870
241.966
241.824
241.943
241.831
241.995
241.818
241.896
241.927
241.991
241.896
241.961
242.144
242.084
241.996
241.986
242.462
242.534
242.227
242.261
242.440
242.338
242.276
242.283
242.248
242.892
242.588
242.461
242.187
242.199
243.232
243.235
242.947
243.244
241.911
241.834
241.960
241.974
241.984
242.002
242.038
242.612
241.621
243.757
241.766
241.811
241.932
242.273
242.117
243.171
241.321
241.390
241.404
241.454
241.655
242.291
242.454
242.512
243.094
242.168
242.288
242.404
242.610
242.670
242.838
242.932
242.532
242.769
242.508
243.733
243.339
243.487
242.867
243.397
242.388
242.365
242.614
242.803
243.353
242.218
242.286
242.216
242.469
242.572
242.722
242.877
243.016
243.140
243.451
242.369
242.460
243.518
243.456
243.411
243.416
243.424
243.482
243.506
243.463
243.237
242.844
242.836
241.991
242.154
241.945
241.972
242.022
242.026
242.044
242.010
241.993
241.951
241.893
241.845
241.784
241.700
241.628
241.571
243.712
243.038
243.017
242.274
241.924
241.846
243.117
242.161
242.223
242.063
243.392
242.522
242.497
242.075
242.055
242.435
243.082
242.846
242.907
242.999
242.215
242.309
242.470
243.037
243.567
242.160
243.595
242.370
242.550
242.740
242.846
242.876
242.831
242.465
241.961
242.020
241.623
242.761
242.006
242.006
241.495
241.758
241.264
241.229
241.601
241.402
241.841
241.677
242.321
242.178
241.886
241.773
241.977
242.679
242.205
242.194
242.768
242.882
242.174
242.185
242.722
242.690
242.249
243.469
242.280
242.628
242.203
242.307
242.182
242.795
242.293
242.293
242.201
242.877
242.466
242.492
242.304
242.899
242.582
242.508
242.278
242.317
242.600
242.772
242.284
242.415
242.323
242.622
242.293
242.300
242.697
242.852
242.439
242.477
242.247
242.350
242.323
242.306
242.157
242.830
242.376
242.248
242.127
242.570
242.116
242.186
241.918
242.171
242.126
241.893
241.898
242.829
242.016
242.257
241.799
241.947
241.751
242.261
242.488
243.128
242.125
242.267
242.235
242.711
242.965
242.298
242.298
242.609
242.609
243.365
242.033
242.194
242.323
243.032
242.003
242.140
242.140
243.063
241.989
242.313
241.800
241.751
242.241
242.561
242.208
242.308
242.130
242.443
242.155
242.250
242.129
242.675
242.373
242.572
242.206
242.331
242.253
242.540
242.246
242.922
242.558
242.655
242.323
242.721
242.357
242.643
242.354
242.701
242.399
242.688
242.390
242.701
242.548
242.733
242.182
243.001
243.181
242.034
242.051
243.443
243.037
243.789
241.985
241.998
242.335
241.963
242.335
241.795
241.914
241.977
242.086
241.799
241.811
241.798
242.688
241.836
241.836
241.785
242.431
241.760
241.760
241.963
241.677
241.551
241.646
241.551
242.037
241.779
241.779
241.641
241.952
241.641
241.470
241.383
241.523
241.432
241.713
241.430
241.564
241.522
242.059
241.546
242.141
241.559
242.242
241.573
242.244
241.573
242.103
241.595
242.178
241.595
242.128
241.639
241.741
241.639
241.741
241.791
242.202
241.884
242.475
241.952
241.979
241.715
241.831
241.795
242.477
241.731
241.737
241.789
241.890
242.363
242.555
243.014
242.931
242.714
242.489
242.788
242.879
243.467
243.262
243.593
243.636
242.298
243.676
242.331
243.794
242.371
243.896
242.396
242.405
242.411
242.410
242.420
242.422
242.450
242.492
242.499
242.492
242.348
242.537
242.541
242.528
242.581
242.488
242.612
242.577
242.465
242.573
242.589
242.468
242.558
242.450
242.435
242.417
242.394
243.582
242.334
243.254
243.440
242.928
242.519
242.609
242.555
242.488
242.070
243.285
242.851
242.696
242.363
242.352
242.277
242.956
242.459
242.457
242.384
242.418
242.280
242.331
242.206
242.479
242.419
242.485
242.435
242.496
242.469
242.714
242.508
242.833
242.773
242.999
243.011
242.397
242.381
242.621
242.652
243.450
242.370
242.596
242.559
242.997
242.380
242.461
242.454
242.531
242.558
242.489
242.431
242.978
243.051
243.445
242.439
242.721
242.721
243.009
243.130
242.406
242.418
242.468
242.583
242.892
242.227
242.356
242.426
242.624
242.735
242.973
242.343
242.465
242.450
242.711
242.845
243.129
242.485
242.553
242.683
242.890
242.957
243.172
242.389
242.410
242.434
242.550
242.675
242.931
243.110
243.449
242.150
242.120
242.157
242.154
242.171
242.263
242.313
242.299
242.276
243.101
243.166
241.963
242.261
242.261
243.016
243.135
241.907
241.855
242.184
242.391
242.869
241.958
241.961
241.362
241.423
241.452
241.527
241.963
241.955
241.558
241.547
241.596
241.664
241.710
241.754
241.819
241.750
241.815
241.830
241.846
241.858
241.848
243.149
242.983
242.681
242.416
242.297
241.959
241.914
241.802
242.628
242.026
241.905
241.850
242.299
241.988
242.225
241.988
242.061
241.984
242.830
241.948
241.953
241.965
242.632
242.506
242.870
242.407
243.375
243.075
243.791
242.967
243.804
243.507
242.330
242.067
242.581
242.297
241.844
241.833
242.167
241.873
242.747
242.065
242.474
242.417
242.849
241.845
242.144
241.865
242.697
242.185
242.775
242.650
243.234
241.778
242.536
242.214
243.161
241.775
241.927
241.884
242.830
242.626
241.906
241.909
242.551
242.453
243.186
243.709
242.032
243.792
242.030
243.585
243.183
243.040
242.620
242.671
242.503
242.489
242.286
242.355
242.229
242.186
242.144
242.086
242.086
242.067
242.054
243.485
242.078
243.567
242.099
243.567
243.567
243.444
243.413
243.253
241.962
241.959
241.981
242.822
242.845
242.468
242.531
242.279
242.474
242.298
242.540
242.308
242.702
242.347
242.384
242.268
243.055
242.677
242.677
242.357
242.889
242.284
242.416
242.145
242.324
242.221
242.501
242.320
242.568
242.346
242.589
242.334
243.048
242.694
242.821
242.469
242.479
243.031
243.108
242.498
242.449
242.628
242.730
242.455
242.624
242.780
243.528
243.031
243.392
242.341
242.750
242.640
242.429
243.246
242.099
241.734
241.837
242.170
242.246
242.007
242.131
242.032
241.861
241.729
241.908
241.950
242.144
242.050
242.280
242.192
242.286
242.180
242.304
242.229
242.256
242.161
242.265
242.192
242.164
242.151
242.190
242.013
242.170
242.014
242.820
242.830
242.177
242.083
242.190
242.090
242.228
242.125
242.244
242.149
242.259
242.186
242.250
242.196
242.223
242.173
242.188
242.121
242.115
242.051
241.792
241.846
241.776
241.759
241.959
241.853
242.142
242.041
242.290
242.232
242.276
242.297
242.169
242.161
242.088
242.042
242.069
242.027
241.924
241.912
241.911
241.904
242.158
242.163
242.157
242.212
241.986
242.060
241.894
241.904
241.898
241.900
241.965
241.967
241.901
241.909
241.965
241.965
242.047
241.969
242.075
242.048
242.030
242.044
242.037
242.041
242.075
242.060
242.062
242.048
242.027
242.011
242.034
241.987
241.972
241.950
242.774
242.561
242.447
242.479
242.561
242.545
242.362
242.412
242.338
242.358
242.390
242.562
242.438
242.378
242.368
242.353
242.478
242.416
241.604
241.591
241.298
241.439
241.439
241.075
241.251
241.053
241.026
241.319
241.015
242.228
242.209
242.254
242.173
242.186
242.214
242.211
242.145
241.401
241.379
241.238
241.198
241.033
241.092
242.434
242.376
242.156
242.143
242.175
242.142
242.142
242.166
242.140
242.130
242.032
242.142
242.020
242.042
242.013
242.039
242.022
242.019
242.107
242.038
242.079
242.201
242.157
242.369
242.313
242.466
242.454
242.462
242.411
242.448
242.379
242.389
241.850
241.897
241.836
241.895
241.781
241.765
241.792
241.772
241.812
241.786
241.855
241.809
241.865
241.841
241.888
241.857
241.935
241.886
241.984
241.924
241.996
241.975
242.065
241.971
242.098
242.048
242.186
242.056
242.126
242.139
242.211
242.080
242.133
242.169
242.195
242.124
242.297
242.190
242.196
242.098
242.264
242.185
242.133
242.045
242.222
242.123
242.046
241.996
242.134
242.045
242.078
242.111
242.127
242.055
242.123
242.114
242.148
242.116
242.337
242.141
242.155
242.092
242.187
242.143
242.106
242.005
242.192
242.106
242.649
242.374
242.402
242.382
242.429
242.403
242.522
242.338
242.517
242.516
242.521
242.522
242.516
242.520
242.470
242.496
242.445
242.438
242.654
242.509
242.540
242.677
242.408
242.442
242.367
242.383
242.385
242.380
242.423
242.397
242.479
242.440
242.981
242.500
242.040
242.112
242.100
241.999
242.399
242.181
242.133
242.102
242.106
242.146
242.050
242.091
242.016
241.998
241.819
241.714
241.977
241.868
242.250
242.048
242.022
241.903
242.183
242.058
242.318
242.211
242.254
242.192
242.335
242.254
242.227
242.137
242.318
242.244
242.356
242.303
242.175
242.127
242.223
242.156
242.172
242.044
242.216
242.123
242.372
242.319
242.407
242.345
242.324
242.285
242.307
242.255
241.997
241.906
241.953
241.871
242.099
242.052
242.043
242.025
241.912
241.832
241.846
241.771
242.200
242.187
242.149
242.141
242.329
242.090
242.242
242.213
242.304
242.126
242.213
242.190
242.089
242.094
241.832
241.831
241.643
241.643
242.136
241.664
242.062
242.066
241.990
241.985
242.162
242.170
242.189
242.192
242.609
242.159
242.247
242.266
242.050
242.069
242.123
241.916
242.114
242.131
242.136
242.133
242.380
242.101
242.306
242.323
242.229
242.257
242.478
242.175
242.359
242.368
242.266
242.284
242.192
242.225
242.718
242.101
242.411
242.623
242.052
242.183
241.800
241.835
241.961
241.874
242.080
242.050
242.055
242.078
242.003
241.897
242.125
241.988
241.924
242.111
242.018
241.924
242.167
242.018
241.957
241.873
242.043
241.957
241.906
241.834
242.017
241.918
241.874
241.808
242.001
241.882
241.972
241.923
241.937
241.897
242.011
241.918
241.955
241.897
242.016
241.944
241.976
241.930
242.065
242.013
242.013
241.955
242.116
242.062
242.028
241.992
242.148
241.922
242.047
242.022
242.174
241.941
242.093
242.059
242.233
241.976
242.123
242.112
242.031
242.007
242.147
242.149
242.079
242.050
242.210
242.203
242.126
242.099
242.265
242.033
242.178
242.187
242.321
242.084
242.253
242.240
242.364
242.179
242.331
242.295
242.404
242.256
242.373
242.368
242.449
242.335
242.419
242.411
242.371
242.370
242.469
242.467
242.408
242.420
242.498
242.360
242.443
242.441
242.511
242.384
242.475
242.475
242.380
242.397
242.467
242.467
242.377
242.388
242.481
242.305
242.403
242.417
242.294
242.276
242.446
242.456
242.359
242.362
242.496
242.274
242.397
242.413
242.288
242.315
242.463
242.180
242.359
242.351
242.256
242.265
242.432
242.152
242.350
242.358
242.248
242.277
242.145
242.186
242.333
242.098
242.277
242.291
242.189
242.238
242.649
242.127
242.362
242.443
242.289
242.301
242.243
242.265
242.176
242.206
242.053
242.096
241.908
241.968
241.743
241.821
241.547
241.647
242.337
242.269
242.434
242.342
242.240
242.136
242.373
242.270
242.485
242.394
242.323
242.264
242.399
242.352
242.460
242.425
242.253
242.254
241.534
241.630
241.722
241.496
241.332
241.643
241.444
241.643
241.436
241.552
241.445
241.482
241.254
241.600
241.324
241.385
241.316
241.481
241.119
241.177
241.133
240.987
240.914
241.105
240.981
240.977
240.911
241.611
241.551
241.500
241.442
242.041
241.997
241.998
241.955
242.130
242.063
242.158
242.077
242.097
242.031
242.074
242.033
242.137
242.053
242.185
242.066
242.132
242.066
242.193
242.075
242.103
242.055
242.189
242.076
242.091
242.026
242.149
242.058
242.060
242.023
242.135
242.030
242.082
242.027
242.124
242.062
242.068
242.012
242.115
242.012
242.059
242.028
242.130
242.068
242.078
242.018
242.106
242.040
242.123
242.029
242.082
242.084
242.104
242.109
242.021
242.017
242.047
242.011
242.012
242.016
242.203
242.011
242.146
242.131
241.881
242.005
241.968
241.873
242.177
241.962
242.035
242.149
242.644
242.179
242.450
242.160
242.363
242.390
242.268
242.296
242.204
242.215
242.495
242.204
242.462
242.470
242.420
242.434
242.373
242.392
242.305
242.338
242.223
242.241
242.436
242.173
242.362
242.386
242.295
242.317
242.410
242.394
242.219
242.024
242.130
242.103
242.203
242.183
242.239
242.224
242.388
242.321
242.409
242.390
242.412
242.409
242.410
242.413
242.416
242.410
242.408
242.423
242.423
242.409
242.448
242.418
242.455
242.425
242.465
242.421
242.421
242.732
242.649
242.407
242.418
242.410
242.424
242.461
242.433
242.604
242.470
242.425
242.447
242.419
242.454
242.434
242.415
242.409
242.415
242.410
242.410
242.408
242.420
242.409
241.883
241.378
241.474
241.751
241.812
241.498
241.522
241.957
241.371
241.795
241.818
241.554
241.613
242.275
242.245
242.314
242.240
242.163
242.146
242.120
242.127
242.041
242.075
242.064
242.406
242.023
242.120
242.021
242.115
241.896
242.017
241.983
242.079
241.830
241.937
241.905
242.018
241.787
241.919
241.863
241.992
241.786
241.949
241.872
241.948
241.826
241.912
241.835
241.977
241.814
241.930
241.849
241.970
241.821
241.944
241.841
241.932
241.827
241.963
241.816
241.924
241.787
241.939
241.808
241.857
241.743
241.938
241.799
241.745
241.622
241.783
241.652
241.653
241.517
242.147
242.154
241.337
242.431
241.879
242.434
242.455
242.465
242.477
242.087
242.096
242.143
242.143
241.951
241.928
241.936
241.929
241.937
241.933
241.877
242.017
241.996
242.019
241.989
242.135
242.061
242.116
242.056
242.276
242.224
242.302
242.196
242.346
242.293
242.321
242.249
242.360
242.292
242.346
242.255
242.307
242.213
242.267
242.200
242.231
242.149
242.184
242.128
242.153
242.090
242.135
242.075
242.097
242.033
242.067
242.018
242.042
241.968
241.999
241.935
241.969
241.958
241.988
241.946
242.052
242.013
242.028
242.008
242.044
242.015
242.029
242.011
242.045
241.996
242.033
242.008
242.042
241.991
242.047
241.979
242.028
241.994
242.016
241.969
242.015
241.978
242.001
241.958
241.972
241.935
241.966
241.920
241.944
241.881
241.943
241.899
241.897
241.884
241.865
241.786
241.871
241.757
241.871
241.752
241.839
241.752
241.839
241.742
241.903
241.742
241.903
241.767
241.899
241.784
242.027
241.820
241.767
242.111
242.005
242.224
242.111
242.014
242.201
242.051
242.019
241.898
241.940
241.942
241.975
241.964
241.800
241.822
241.902
241.758
241.747
241.715
241.825
240.889
241.709
240.873
240.859
240.866
240.927
240.863
240.966
240.960
241.174
241.020
241.502
241.271
241.803
241.534
241.292
241.056
241.783
241.471
241.965
241.529
241.417
241.582
241.568
241.710
241.610
241.806
241.766
241.211
241.175
241.297
241.235
241.375
241.332
241.444
241.441
240.944
240.977
241.497
241.176
241.798
241.547
241.456
241.798
241.715
241.442
241.907
241.662
241.538
241.238
241.655
241.334
241.365
241.158
241.414
241.215
241.279
241.163
241.375
241.180
241.405
241.179
241.504
241.285
241.593
241.335
241.472
241.311
241.528
241.281
241.528
241.383
241.774
241.304
241.739
241.646
241.928
241.646
241.828
241.857
241.801
241.791
242.041
242.032
241.987
241.952
242.221
242.210
242.176
242.179
242.346
242.078
242.106
241.882
241.946
242.522
241.747
241.820
241.999
240.928
240.943
240.927
240.871
240.909
240.881
240.867
242.379
242.363
242.400
242.364
242.485
242.231
242.258
242.462
242.446
242.779
242.425
242.365
242.349
241.996
242.261
242.222
242.173
242.131
242.247
242.235
242.131
242.230
242.605
242.378
242.748
242.656
242.095
242.176
242.298
242.179
242.503
242.464
242.369
242.430
242.446
242.157
242.357
241.767
241.777
243.407
241.768
242.677
241.909
241.968
242.022
241.956
241.942
242.006
242.002
242.028
242.048
241.982
242.016
241.864
241.957
241.762
241.814
241.620
241.668
241.458
241.485
241.531
242.372
241.397
241.852
241.849
241.771
241.791
242.061
241.695
241.972
241.981
242.231
241.877
242.031
242.040
241.020
240.946
240.954
241.083
240.932
241.229
241.071
241.224
241.021
241.450
241.150
242.066
242.023
242.026
242.144
242.073
242.374
242.235
242.631
242.522
242.288
242.011
242.058
242.031
242.013
242.121
242.049
242.264
242.161
242.654
242.374
242.827
242.748
242.408
242.407
242.409
242.384
242.378
242.377
242.377
241.942
242.409
242.410
241.251
242.008
241.937
242.019
242.026
242.049
242.387
242.505
242.158
242.168
242.025
241.020
241.061
241.666
241.615
242.010
241.941
242.010
241.948
241.997
241.948
242.162
242.163
242.411
242.408
242.408
242.412
241.917
241.968
242.025
242.015
241.557
241.660
242.043
241.942
242.038
241.023
241.029
242.172
242.163
241.990
241.969
242.417
242.409
242.407
242.414
242.408
242.410
242.408
242.426
242.418
242.445
242.408
242.408
242.013
242.012
241.207
241.061
241.197
241.802
241.846
241.767
241.766
241.914
241.826
242.057
242.003
242.248
242.193
242.271
242.281
242.185
242.236
242.022
242.092
241.905
241.942
241.989
241.937
241.989
241.946
242.014
241.952
242.023
241.955
242.061
241.985
242.068
242.008
242.069
242.025
242.034
241.990
241.935
241.958
241.882
241.895
241.901
241.869
241.902
241.899
241.925
241.895
241.945
241.941
241.939
241.940
242.003
242.013
242.013
242.026
242.030
242.028
242.032
242.040
242.049
242.020
242.004
241.996
241.974
241.978
241.919
241.896
241.880
241.850
241.803
241.782
241.811
241.758
242.423
242.475
242.513
241.975
241.977
240.881
241.379
241.111
241.105
241.197
241.094
241.131
241.100
240.953
240.909
240.922
240.925
240.933
241.039
240.880
240.869
241.020
240.922
240.874
240.903
240.907
240.988
240.993
240.947
240.900
242.052
242.044
242.092
242.078
242.360
242.125
242.471
242.179
242.467
242.350
242.396
241.871
241.972
241.038
241.017
242.233
242.181
242.059
242.094
241.785
241.751
241.808
241.739
241.784
241.742
241.827
241.731
241.801
241.761
241.885
241.746
241.824
241.805
241.934
241.762
241.875
241.845
241.815
241.798
241.908
241.886
241.858
241.840
241.947
241.775
241.889
241.865
241.987
241.809
241.922
241.907
242.017
241.830
241.960
241.954
241.917
241.891
242.015
241.992
241.931
241.935
242.057
242.033
241.949
241.949
242.145
241.922
242.067
242.063
242.230
241.967
242.171
242.161
242.331
242.115
242.288
242.252
242.363
242.184
242.338
242.330
242.268
242.259
242.352
242.352
242.322
242.318
242.379
242.260
242.313
242.308
242.380
242.262
242.303
242.303
242.202
242.213
242.305
242.316
242.228
242.229
242.304
242.167
242.228
242.224
242.176
242.181
242.269
242.122
242.188
242.189
242.131
242.138
242.218
242.235
242.146
242.139
242.076
242.087
242.184
242.222
242.074
242.082
242.036
242.045
242.215
242.020
242.130
242.154
242.084
242.082
242.247
242.066
242.157
242.187
242.117
242.114
242.069
242.086
241.991
242.013
242.243
241.895
242.207
242.360
242.040
242.089
242.079
242.338
242.347
242.369
242.358
242.118
242.083
242.334
242.340
242.352
242.335
242.347
242.356
242.257
242.309
242.125
242.190
242.029
242.057
241.977
241.964
242.042
241.997
242.383
242.038
242.376
242.063
242.114
242.099
242.148
242.141
242.151
242.133
242.144
242.070
242.121
242.101
242.015
242.073
242.016
242.120
242.106
242.132
242.132
241.593
241.696
241.663
241.621
241.807
241.694
241.779
241.818
241.826
241.776
241.961
241.865
242.032
241.976
242.121
242.053
242.203
242.122
242.060
241.993
242.152
242.059
242.190
240.916
240.882
240.900
242.046
241.990
242.077
242.024
241.895
241.755
241.975
241.845
242.235
241.924
242.276
242.218
242.277
242.164
242.148
241.741
242.100
241.715
241.667
241.956
241.718
241.932
241.922
241.767
241.910
241.783
241.810
241.816
241.836
242.083
242.064
242.032
242.014
242.121
242.093
242.019
241.998
242.086
241.925
241.997
241.980
241.899
241.899
241.663
241.652
241.782
241.782
241.994
241.862
241.934
241.944
241.914
241.917
242.160
242.155
242.103
242.107
242.129
242.029
241.965
241.982
241.827
241.842
242.117
241.777
242.111
242.111
242.088
242.090
242.283
242.053
242.197
242.220
242.127
242.139
242.050
242.079
242.253
241.989
242.185
242.221
242.054
242.086
241.931
241.946
241.910
241.865
241.885
241.909
241.844
242.059
242.027
242.066
242.083
242.018
242.035
240.855
240.865
240.873
240.870
240.855
240.864
241.355
240.858
241.291
241.292
241.962
241.226
241.966
241.969
242.096
242.156
241.957
242.026
241.791
241.860
241.630
241.710
241.472
241.532
242.011
241.971
242.018
242.008
242.011
242.009
242.011
242.011
242.011
242.011
242.011
242.011
242.011
242.012
242.017
242.011
242.013
242.011
242.025
242.015
242.011
242.011
242.014
242.011
242.011
242.011
242.011
242.011
242.011
242.012
242.014
242.011
242.011
242.011
242.011
242.011
242.011
242.026
242.013
242.013
242.011
242.011
242.011
242.011
242.011
242.011
242.015
242.011
242.011
242.011
242.014
242.011
242.011
242.012
242.011
242.011
242.011
242.316
242.263
242.369
242.314
242.214
242.151
242.289
242.224
242.056
241.987
242.188
242.086
242.113
242.012
242.237
242.148
242.312
242.245
242.161
242.328
242.238
242.178
242.148
242.158
242.087
242.123
242.289
242.055
242.206
242.236
242.203
242.199
242.227
242.218
242.241
242.241
242.368
242.220
242.315
242.332
242.234
242.263
242.141
242.173
242.050
242.079
242.295
241.990
242.235
242.248
242.006
241.932
242.014
241.941
241.976
241.924
242.009
241.947
242.007
241.949
242.039
241.976
242.059
241.972
242.122
242.001
242.042
242.008
242.055
242.035
241.929
241.946
241.923
241.941
241.772
241.927
241.764
241.798
241.753
241.780
241.768
241.743
241.816
241.763
241.829
241.824
241.821
241.832
241.859
241.830
241.840
241.849
241.892
241.796
241.849
241.903
241.908
241.838
241.988
241.882
241.972
241.861
241.968
241.915
241.961
241.864
242.059
241.961
241.978
241.882
242.051
241.967
241.958
241.922
241.995
241.950
241.965
242.001
241.975
241.973
242.009
241.984
242.032
242.000
242.055
242.037
242.052
241.974
242.108
242.041
241.998
241.907
242.080
241.983
241.930
241.867
241.990
241.918
241.854
241.845
241.883
241.852
241.837
241.883
241.858
241.837
241.924
241.858
241.829
241.815
241.878
241.826
241.807
241.790
241.835
241.807
241.783
241.780
241.821
241.785
241.765
241.817
241.784
241.767
241.903
241.807
242.065
242.052
242.203
242.140
242.245
242.224
242.337
242.321
242.191
242.257
240.892
240.931
240.925
240.887
240.881
242.393
242.397
242.178
242.360
242.364
242.213
242.307
242.165
242.157
241.397
241.367
241.367
241.827
241.287
241.725
241.740
241.639
241.653
241.896
241.585
241.812
241.817
241.984
241.777
242.225
242.187
242.167
242.247
242.245
242.138
242.116
242.180
242.170
242.184
242.207
242.175
242.165
242.324
242.205
242.458
242.481
242.460
242.172
242.285
241.853
241.944
241.826
241.783
241.888
241.886
241.882
241.898
241.816
241.865
242.032
241.745
242.035
242.010
241.508
241.957
241.410
241.838
241.285
241.656
241.105
241.532
241.014
240.965
240.858
241.298
240.951
241.019
240.857
240.847
241.165
240.915
240.966
241.000
240.921
240.944
240.863
241.229
240.959
241.021